data_Wien2k_Data
_cell_length_a    4.586406
_cell_length_b    4.586406
_cell_length_c    4.586406
_cell_angle_alpha   57.050909
_cell_angle_beta    57.050909
_cell_angle_gamma   57.050909
_cell_measurement_temperature 0.0
_diffrn_ambient_temperature 0.0
_symmetry_space_group_name_H-M         'P 1'
_symmetry_Int_Tables_number            1

loop_
_symmetry_equiv_pos_as_xyz
   +x,+y,+z
loop_
_atom_site_label
_atom_site_type_symbol
_atom_site_fract_x
_atom_site_fract_y
_atom_site_fract_z
_atom_site_U_iso_or_equiv
Sb001  Sb  0.26668467  0.26668466  0.26668467  0.05000000
Sb002  Sb -0.26668467 -0.26668466 -0.26668467  0.05000000
#End data_Wien2k_Data
