data_Wien2k_Data
_cell_length_a    5.050980
_cell_length_b    5.050980
_cell_length_c    5.050980
_cell_angle_alpha   58.040745
_cell_angle_beta    58.040745
_cell_angle_gamma   58.040745
_cell_measurement_temperature 0.0
_diffrn_ambient_temperature 0.0
_symmetry_space_group_name_H-M         'P 1'
_symmetry_Int_Tables_number            1

loop_
_symmetry_equiv_pos_as_xyz
   +x,+y,+z
loop_
_atom_site_label
_atom_site_type_symbol
_atom_site_fract_x
_atom_site_fract_y
_atom_site_fract_z
_atom_site_U_iso_or_equiv
B0001  B   0.48969000  0.84597000  0.48969000  0.05000000
B0002  B   0.48969000  0.48969000  0.84597000  0.05000000
B0003  B   0.84597000  0.48969000  0.48969000  0.05000000
B0004  B  -0.84597000 -0.48969000 -0.48969000  0.05000000
B0005  B  -0.48969000 -0.48969000 -0.84597000  0.05000000
B0006  B  -0.48969000 -0.84597000 -0.48969000  0.05000000
B0007  B   0.27885000  0.86956000  0.27885000  0.05000000
B0008  B   0.27885000  0.27885000  0.86956000  0.05000000
B0009  B   0.86956000  0.27885000  0.27885000  0.05000000
B0010  B  -0.27885000 -0.86956000 -0.27885000  0.05000000
B0011  B  -0.27885000 -0.27885000 -0.86956000  0.05000000
B0012  B  -0.86956000 -0.27885000 -0.27885000  0.05000000
#End data_Wien2k_Data
